 ----------------------------------------------------------
 #p nosymm geom=nocrowd opt=(modredundant,maxcycle=100) PM6
 ----------------------------------------------------------

 -----
 Title
 -----
 Symbolic Z-matrix:
 Charge =  0 Multiplicity = 1

 SCF Done:  E(RPM6) = -0.407138076272E-01 A.U. after   11 cycles
 SCF Done:  E(RPM6) = -0.413977017203E-01 A.U. after   10 cycles
 SCF Done:  E(RPM6) = -0.414187353314E-01 A.U. after    9 cycles
 SCF Done:  E(RPM6) = -0.414239080035E-01 A.U. after    9 cycles
 Optimization completed.
    -- Stationary point found.
 SCF Done:  E(RPM6) = -0.204637769402E-01 A.U. after   13 cycles
 SCF Done:  E(RPM6) = -0.336568637490E-01 A.U. after   12 cycles
 SCF Done:  E(RPM6) = -0.388933619120E-01 A.U. after   12 cycles
 SCF Done:  E(RPM6) = -0.398391638389E-01 A.U. after   12 cycles
 SCF Done:  E(RPM6) = -0.399158593651E-01 A.U. after   10 cycles
 SCF Done:  E(RPM6) = -0.399192917119E-01 A.U. after    9 cycles
 Optimization completed.
 SCF Done:  E(RPM6) = -0.331224698222E-01 A.U. after   12 cycles
 SCF Done:  E(RPM6) = -0.395180196651E-01 A.U. after   12 cycles
 SCF Done:  E(RPM6) = -0.399321921178E-01 A.U. after   11 cycles
 SCF Done:  E(RPM6) = -0.399363849281E-01 A.U. after   10 cycles
    -- Stationary point found.
 SCF Done:  E(RPM6) = -0.218414538938E-01 A.U. after   13 cycles
 SCF Done:  E(RPM6) = -0.361133834388E-01 A.U. after   12 cycles
 SCF Done:  E(RPM6) = -0.412990427476E-01 A.U. after   12 cycles
 SCF Done:  E(RPM6) = -0.414222600948E-01 A.U. after   11 cycles
 SCF Done:  E(RPM6) = -0.414241476331E-01 A.U. after   10 cycles
 SCF Done:  E(RPM6) = -0.414242482128E-01 A.U. after    8 cycles
 Optimization completed.
    -- Stationary point found.

                          Input orientation:
 ---------------------------------------------------------------------
 Center     Atomic      Atomic             Coordinates (Angstroms)
 Number     Number       Type             X           Y           Z
 ---------------------------------------------------------------------
      1          6           0       -1.772347   -0.051607    1.012793
      2          1           0       -2.018421   -0.782419    0.234466
      3          1           0       -2.122189   -0.459305    1.967909
      4          1           0       -0.679837    0.015586    1.065989
      5          6           0       -2.405386    1.305800    0.715145
      6          1           0       -3.504154    1.196584    0.630651
      7          1           0       -2.062562    1.671093   -0.272422
      8          6           0       -2.067924    2.341264    1.797952
      9          1           0       -2.406921    1.974126    2.786242
     10          1           0       -0.969252    2.453368    1.879590
     11          6           0       -2.705611    3.697082    1.503281
     12          1           0       -3.798161    3.627207    1.454497
     13          1           0       -2.458254    4.428316    2.280806
     14          1           0       -2.360809    4.105872    0.546771
 ---------------------------------------------------------------------

 Alpha  occ. eigenvalues --       -1.04023      -0.94334      -0.80334      -0.73962      -0.58824
 Alpha  occ. eigenvalues --       -0.53783      -0.52730      -0.51551      -0.47147      -0.44536
 Alpha  occ. eigenvalues --       -0.43920      -0.42043      -0.40894
 Alpha virt. eigenvalues --        0.15506       0.16810       0.18077       0.20453       0.21570
 Alpha virt. eigenvalues --        0.21892       0.22265       0.22702       0.23508       0.24291
 Alpha virt. eigenvalues --        0.24785       0.25517       0.25689

 Mulliken charges:
               1
     1  C   -0.465163
     2  H    0.144020
     3  H    0.146227
     4  H    0.146227
     5  C   -0.224269
     6  H    0.126499
     7  H    0.126460
     8  C   -0.224279
     9  H    0.126504
    10  H    0.126454
    11  C   -0.465153
    12  H    0.146224
    13  H    0.144022
    14  H    0.146228
 Sum of Mulliken charges =   0.00000

 Dipole moment (field-independent basis, Debye):
    X=             -0.0003    Y=             -0.0001    Z=              0.0002  Tot=              0.0004
 N-N= 9.111035162311D+01 E-N=-1.302644922558D+02  KE=-3.627743148840D+01
 Leave Link  601 at Fri Mar 29 17:12:32 2024, MaxMem=   134217728 cpu:               0.1 elap:               0.0
 (Enter /home/emanuele/chem_software/gaussian//gdv/l9999.exe)
 Unable to Open any file for archive entry.
 1\1\GINC-EMANUELE-XPS-13-9343\Scan\RPM6\ZDO\C4H10\EMANUELE\29-Mar-2024
 \0\\#p nosymm geom=nocrowd opt=(modredundant,maxcycle=100) PM6\\Title\
 \0,1\C,-1.7723473466,-0.0516065621,1.0127926669\H,-2.0184214876,-0.782
 4188375,0.2344659317\H,-2.1221886113,-0.4593048387,1.9679094183\H,-0.6
 798374378,0.0155856876,1.0659886513\C,-2.4053858253,1.3057999739,0.715
 144746\H,-3.5041536518,1.1965838258,0.6306509945\H,-2.0625616251,1.671

 Normal termination of Gaussian DV at Fri Mar 29 17:12:32 2024.
