 ----------------------------------------------------------
 #p nosymm geom=nocrowd opt=(modredundant,maxcycle=100) PM6
 ----------------------------------------------------------

 -----
 Title
 -----
 Symbolic Z-matrix:
 Charge =  0 Multiplicity = 1

 SCF Done:  E(RPM6) = -0.407138076272E-01 A.U. after   11 cycles
 SCF Done:  E(RPM6) = -0.413978296735E-01 A.U. after    9 cycles
 SCF Done:  E(RPM6) = -0.414188195128E-01 A.U. after    9 cycles
 SCF Done:  E(RPM6) = -0.414239877890E-01 A.U. after    9 cycles
 Optimization completed.
    -- Stationary point found.
 SCF Done:  E(RPM6) = -0.199076017923E-01 A.U. after   11 cycles
 SCF Done:  E(RPM6) = -0.339914382458E-01 A.U. after   11 cycles
 SCF Done:  E(RPM6) = -0.394570414402E-01 A.U. after   11 cycles
 SCF Done:  E(RPM6) = -0.398640053587E-01 A.U. after   10 cycles
 SCF Done:  E(RPM6) = -0.399069642646E-01 A.U. after    9 cycles
 SCF Done:  E(RPM6) = -0.399084838111E-01 A.U. after    8 cycles
 Optimization completed.
 SCF Done:  E(RPM6) = -0.333279849571E-01 A.U. after   11 cycles
 SCF Done:  E(RPM6) = -0.396329249927E-01 A.U. after   12 cycles
 SCF Done:  E(RPM6) = -0.399062298472E-01 A.U. after   11 cycles
 SCF Done:  E(RPM6) = -0.399087292300E-01 A.U. after   10 cycles
    -- Stationary point found.
 SCF Done:  E(RPM6) = -0.212225884894E-01 A.U. after   12 cycles
 SCF Done:  E(RPM6) = -0.360530792993E-01 A.U. after   11 cycles
 SCF Done:  E(RPM6) = -0.413372927863E-01 A.U. after   11 cycles
 SCF Done:  E(RPM6) = -0.414232933062E-01 A.U. after    9 cycles
 SCF Done:  E(RPM6) = -0.414243000502E-01 A.U. after    9 cycles
 SCF Done:  E(RPM6) = -0.414243382580E-01 A.U. after    8 cycles
 Optimization completed.
    -- Stationary point found.

                          Input orientation:
 ---------------------------------------------------------------------
 Center     Atomic      Atomic             Coordinates (Angstroms)
 Number     Number       Type             X           Y           Z
 ---------------------------------------------------------------------
      1          6           0       -1.712134   -0.039249    1.042134
      2          1           0       -1.922778   -0.785610    0.268204
      3          1           0       -2.065421   -0.447105    1.995944
      4          1           0       -0.623235    0.061889    1.112635
      5          6           0       -2.381028    1.294844    0.718748
      6          1           0       -3.474249    1.151091    0.615958
      7          1           0       -2.031772    1.660358   -0.266514
      8          6           0       -2.094942    2.351297    1.796055
      9          1           0       -2.444169    1.985750    2.781339
     10          1           0       -1.001740    2.495071    1.898832
     11          6           0       -2.763836    3.685388    1.472675
     12          1           0       -3.852750    3.584277    1.402299
     13          1           0       -2.553121    4.431778    2.246558
     14          1           0       -2.410654    4.093188    0.518803
 ---------------------------------------------------------------------

 Alpha  occ. eigenvalues --       -1.04023      -0.94334      -0.80334      -0.73962      -0.58825
 Alpha  occ. eigenvalues --       -0.53783      -0.52730      -0.51551      -0.47147      -0.44536
 Alpha  occ. eigenvalues --       -0.43920      -0.42043      -0.40894
 Alpha virt. eigenvalues --        0.15506       0.16809       0.18077       0.20453       0.21569
 Alpha virt. eigenvalues --        0.21892       0.22265       0.22702       0.23508       0.24291
 Alpha virt. eigenvalues --        0.24784       0.25517       0.25689

 Mulliken charges:
               1
     1  C   -0.465158
     2  H    0.144021
     3  H    0.146228
     4  H    0.146226
     5  C   -0.224278
     6  H    0.126482
     7  H    0.126479
     8  C   -0.224278
     9  H    0.126481
    10  H    0.126480
    11  C   -0.465157
    12  H    0.146225
    13  H    0.144021
    14  H    0.146229
 Sum of Mulliken charges =   0.00000

 Dipole moment (field-independent basis, Debye):
    X=             -0.0000    Y=             -0.0000    Z=              0.0000  Tot=              0.0000
 N-N= 9.111041791286D+01 E-N=-1.302645807216D+02  KE=-3.627744865679D+01
 Leave Link  601 at Fri Mar 29 17:13:26 2024, MaxMem=   134217728 cpu:               0.1 elap:               0.0
 (Enter /home/emanuele/chem_software/gaussian//gdv/l9999.exe)
 Unable to Open any file for archive entry.
 1\1\GINC-EMANUELE-XPS-13-9343\Scan\RPM6\ZDO\C4H10\EMANUELE\29-Mar-2024
 \0\\#p nosymm geom=nocrowd opt=(modredundant,maxcycle=100) PM6\\Title\
 \0,1\C,-1.7121344885,-0.0392487929,1.0421335711\H,-1.9227775649,-0.785
 6103761,0.2682035129\H,-2.0654213644,-0.4471052708,1.9959435329\H,-0.6
 232349829,0.0618894071,1.1126350375\C,-2.3810283351,1.2948437615,0.718
 7484264\H,-3.474248671,1.1510907761,0.6159582329\H,-2.0317716444,1.660

 Normal termination of Gaussian DV at Fri Mar 29 17:13:26 2024.
