 ----------------------------------------------------------
 #p nosymm geom=nocrowd opt=(modredundant,maxcycle=100) PM6
 ----------------------------------------------------------

 -----
 Title
 -----
 Symbolic Z-matrix:
 Charge =  0 Multiplicity = 1

 SCF Done:  E(RPM6) = -0.407138076272E-01 A.U. after   11 cycles
 SCF Done:  E(RPM6) = -0.413977890995E-01 A.U. after   10 cycles
 SCF Done:  E(RPM6) = -0.414189212636E-01 A.U. after    9 cycles
 SCF Done:  E(RPM6) = -0.414239870617E-01 A.U. after    9 cycles
 Optimization completed.
    -- Stationary point found.
 SCF Done:  E(RPM6) = -0.244985115426E-01 A.U. after   12 cycles
 SCF Done:  E(RPM6) = -0.352765535327E-01 A.U. after   11 cycles
 SCF Done:  E(RPM6) = -0.394198686836E-01 A.U. after   12 cycles
 SCF Done:  E(RPM6) = -0.401755839525E-01 A.U. after   11 cycles
 SCF Done:  E(RPM6) = -0.402335590312E-01 A.U. after   10 cycles
 SCF Done:  E(RPM6) = -0.402362302519E-01 A.U. after    9 cycles
 Optimization completed.
 SCF Done:  E(RPM6) = -0.221843815343E-01 A.U. after   12 cycles
 SCF Done:  E(RPM6) = -0.341135983682E-01 A.U. after   11 cycles
 SCF Done:  E(RPM6) = -0.399779676610E-01 A.U. after   11 cycles
 SCF Done:  E(RPM6) = -0.402351713894E-01 A.U. after   11 cycles
 SCF Done:  E(RPM6) = -0.402427682190E-01 A.U. after    9 cycles
    -- Stationary point found.
 SCF Done:  E(RPM6) = -0.252472475683E-01 A.U. after   12 cycles
 SCF Done:  E(RPM6) = -0.368988312731E-01 A.U. after   12 cycles
 SCF Done:  E(RPM6) = -0.413604361052E-01 A.U. after   12 cycles
 SCF Done:  E(RPM6) = -0.414229651731E-01 A.U. after   10 cycles
 SCF Done:  E(RPM6) = -0.414242912179E-01 A.U. after    8 cycles
 Optimization completed.
    -- Stationary point found.

                          Input orientation:
 ---------------------------------------------------------------------
 Center     Atomic      Atomic             Coordinates (Angstroms)
 Number     Number       Type             X           Y           Z
 ---------------------------------------------------------------------
      1          6           0       -2.388423    0.503286   -0.166176
      2          1           0       -1.655667    0.065608   -0.853225
      3          1           0       -3.170551    0.970332   -0.775230
      4          1           0       -2.852538   -0.320709    0.387257
      5          6           0       -1.730194    1.511425    0.773066
      6          1           0       -1.238367    2.308439    0.182206
      7          1           0       -0.920619    1.017758    1.345213
      8          6           0       -2.745781    2.134459    1.741943
      9          1           0       -3.555517    2.627903    1.170033
     10          1           0       -3.237394    1.337235    2.332868
     11          6           0       -2.087620    3.142917    2.680926
     12          1           0       -1.623577    3.966797    2.127019
     13          1           0       -2.820280    3.581179    3.367646
     14          1           0       -1.305299    2.676337    3.290124
 ---------------------------------------------------------------------

 Alpha  occ. eigenvalues --       -1.04025      -0.94335      -0.80334      -0.73960      -0.58827
 Alpha  occ. eigenvalues --       -0.53783      -0.52729      -0.51554      -0.47146      -0.44539
 Alpha  occ. eigenvalues --       -0.43918      -0.42043      -0.40895
 Alpha virt. eigenvalues --        0.15506       0.16811       0.18076       0.20454       0.21571
 Alpha virt. eigenvalues --        0.21891       0.22264       0.22703       0.23509       0.24291
 Alpha virt. eigenvalues --        0.24784       0.25517       0.25690

 Mulliken charges:
               1
     1  C   -0.465173
     2  H    0.144023
     3  H    0.146223
     4  H    0.146235
     5  C   -0.224282
     6  H    0.126478
     7  H    0.126495
     8  C   -0.224268
     9  H    0.126482
    10  H    0.126487
    11  C   -0.465171
    12  H    0.146227
    13  H    0.144018
    14  H    0.146226
 Sum of Mulliken charges =   0.00000

 Dipole moment (field-independent basis, Debye):
    X=              0.0002    Y=              0.0004    Z=             -0.0003  Tot=              0.0006
 N-N= 9.111101739598D+01 E-N=-1.302655698828D+02  KE=-3.627753650551D+01
 Leave Link  601 at Fri Mar 29 17:14:17 2024, MaxMem=   134217728 cpu:               0.1 elap:               0.0
 (Enter /home/emanuele/chem_software/gaussian//gdv/l9999.exe)
 Unable to Open any file for archive entry.
 1\1\GINC-EMANUELE-XPS-13-9343\Scan\RPM6\ZDO\C4H10\EMANUELE\29-Mar-2024
 \0\\#p nosymm geom=nocrowd opt=(modredundant,maxcycle=100) PM6\\Title\
 \0,1\C,-2.3884231565,0.5032861806,-0.1661756031\H,-1.6556670097,0.0656
 075911,-0.853225333\H,-3.1705511233,0.9703322799,-0.7752299227\H,-2.85
 25382026,-0.3207087614,0.387256601\C,-1.7301939113,1.5114246522,0.7730
 659456\H,-1.238366512,2.3084393617,0.1822063105\H,-0.9206187504,1.0177

 Normal termination of Gaussian DV at Fri Mar 29 17:14:17 2024.
