 ----------------------------------------------------------
 #p nosymm geom=nocrowd opt=(modredundant,maxcycle=100) PM6
 ----------------------------------------------------------

 -----
 Title
 -----
 Symbolic Z-matrix:
 Charge =  0 Multiplicity = 1

 SCF Done:  E(RPM6) = -0.407138076272E-01 A.U. after   11 cycles
 SCF Done:  E(RPM6) = -0.413978296736E-01 A.U. after    9 cycles
 SCF Done:  E(RPM6) = -0.414188195130E-01 A.U. after    9 cycles
 SCF Done:  E(RPM6) = -0.414239877891E-01 A.U. after    9 cycles
 Optimization completed.
    -- Stationary point found.
 SCF Done:  E(RPM6) = -0.237187496253E-01 A.U. after   12 cycles
 SCF Done:  E(RPM6) = -0.350061683281E-01 A.U. after   11 cycles
 SCF Done:  E(RPM6) = -0.396358730361E-01 A.U. after   12 cycles
 SCF Done:  E(RPM6) = -0.401780457943E-01 A.U. after   10 cycles
 SCF Done:  E(RPM6) = -0.402271718690E-01 A.U. after   10 cycles
 SCF Done:  E(RPM6) = -0.402294099330E-01 A.U. after    9 cycles
 Optimization completed.
 SCF Done:  E(RPM6) = -0.218574133908E-01 A.U. after   12 cycles
 SCF Done:  E(RPM6) = -0.342667533810E-01 A.U. after   12 cycles
 SCF Done:  E(RPM6) = -0.401338342987E-01 A.U. after   12 cycles
 SCF Done:  E(RPM6) = -0.402290889602E-01 A.U. after   10 cycles
 SCF Done:  E(RPM6) = -0.402297663552E-01 A.U. after    9 cycles
    -- Stationary point found.
 SCF Done:  E(RPM6) = -0.246116898946E-01 A.U. after   12 cycles
 SCF Done:  E(RPM6) = -0.366310519239E-01 A.U. after   12 cycles
 SCF Done:  E(RPM6) = -0.413722321989E-01 A.U. after   12 cycles
 SCF Done:  E(RPM6) = -0.414239835685E-01 A.U. after   11 cycles
 SCF Done:  E(RPM6) = -0.414243240617E-01 A.U. after    8 cycles
 Optimization completed.
    -- Stationary point found.

                          Input orientation:
 ---------------------------------------------------------------------
 Center     Atomic      Atomic             Coordinates (Angstroms)
 Number     Number       Type             X           Y           Z
 ---------------------------------------------------------------------
      1          6           0       -2.427829    0.487255   -0.146398
      2          1           0       -1.711840    0.030867   -0.838849
      3          1           0       -3.213777    0.956046   -0.749175
      4          1           0       -2.893511   -0.323327    0.425502
      5          6           0       -1.742049    1.499151    0.768865
      6          1           0       -1.249870    2.282224    0.159796
      7          1           0       -0.929420    1.002825    1.334256
      8          6           0       -2.734068    2.147392    1.745604
      9          1           0       -3.546146    2.644437    1.180083
     10          1           0       -3.226790    1.364288    2.354074
     11          6           0       -2.048089    3.158577    2.661536
     12          1           0       -1.581867    3.969186    2.090176
     13          1           0       -2.764092    3.614951    3.353934
     14          1           0       -1.262480    2.689095    3.264265
 ---------------------------------------------------------------------

 Alpha  occ. eigenvalues --       -1.04023      -0.94333      -0.80334      -0.73962      -0.58825
 Alpha  occ. eigenvalues --       -0.53784      -0.52729      -0.51551      -0.47147      -0.44537
 Alpha  occ. eigenvalues --       -0.43918      -0.42045      -0.40894
 Alpha virt. eigenvalues --        0.15505       0.16811       0.18075       0.20453       0.21570
 Alpha virt. eigenvalues --        0.21892       0.22265       0.22701       0.23508       0.24290
 Alpha virt. eigenvalues --        0.24784       0.25517       0.25690

 Mulliken charges:
               1
     1  C   -0.465168
     2  H    0.144019
     3  H    0.146220
     4  H    0.146232
     5  C   -0.224274
     6  H    0.126475
     7  H    0.126486
     8  C   -0.224262
     9  H    0.126480
    10  H    0.126486
    11  C   -0.465168
    12  H    0.146226
    13  H    0.144021
    14  H    0.146226
 Sum of Mulliken charges =  -0.00000

 Dipole moment (field-independent basis, Debye):
    X=              0.0001    Y=             -0.0000    Z=             -0.0002  Tot=              0.0002
 N-N= 9.111027169438D+01 E-N=-1.302642889665D+02  KE=-3.627744641842D+01
 Leave Link  601 at Fri Mar 29 17:15:08 2024, MaxMem=   134217728 cpu:               0.1 elap:               0.0
 (Enter /home/emanuele/chem_software/gaussian//gdv/l9999.exe)
 Unable to Open any file for archive entry.
 1\1\GINC-EMANUELE-XPS-13-9343\Scan\RPM6\ZDO\C4H10\EMANUELE\29-Mar-2024
 \0\\#p nosymm geom=nocrowd opt=(modredundant,maxcycle=100) PM6\\Title\
 \0,1\C,-2.4278289941,0.4872553981,-0.1463981295\H,-1.7118397424,0.0308
 673373,-0.8388486558\H,-3.2137767034,0.9560455437,-0.7491751572\H,-2.8
 935105649,-0.3233274443,0.4255024834\C,-1.7420491692,1.499150924,0.768
 8654915\H,-1.2498695917,2.282224097,0.1597958992\H,-0.9294204569,1.002

 Normal termination of Gaussian DV at Fri Mar 29 17:15:08 2024.
