 -------------------------------------------------------------------
 #p nosymm geom=nocrowd opt=(modredundant,maxcycle=100) PBEPBE/6-31G
 -------------------------------------------------------------------

 -----
 Title
 -----
 Symbolic Z-matrix:
 Charge =  0 Multiplicity = 1

 SCF Done:  E(RPBE-PBE) =  -284.004187391     A.U. after   16 cycles
 SCF Done:  E(RPBE-PBE) =  -284.010167678     A.U. after   13 cycles
 SCF Done:  E(RPBE-PBE) =  -284.010606191     A.U. after   13 cycles
 SCF Done:  E(RPBE-PBE) =  -284.010777265     A.U. after   13 cycles
 SCF Done:  E(RPBE-PBE) =  -284.010777879     A.U. after   12 cycles
 SCF Done:  E(RPBE-PBE) =  -284.010836204     A.U. after   12 cycles
 SCF Done:  E(RPBE-PBE) =  -284.010842633     A.U. after   10 cycles
 SCF Done:  E(RPBE-PBE) =  -284.010843119     A.U. after    9 cycles
 Optimization completed.
    -- Stationary point found.
 SCF Done:  E(RPBE-PBE) =  -283.994660672     A.U. after   12 cycles
 SCF Done:  E(RPBE-PBE) =  -284.005696755     A.U. after   13 cycles
 Optimization completed.
 SCF Done:  E(RPBE-PBE) =  -284.011701036     A.U. after   14 cycles
 SCF Done:  E(RPBE-PBE) =  -284.011751204     A.U. after   12 cycles
 SCF Done:  E(RPBE-PBE) =  -284.011754949     A.U. after    9 cycles
    -- Stationary point found.
 SCF Done:  E(RPBE-PBE) =  -284.000505597     A.U. after   12 cycles
 SCF Done:  E(RPBE-PBE) =  -284.011620486     A.U. after   13 cycles
 SCF Done:  E(RPBE-PBE) =  -284.014004923     A.U. after   13 cycles
 SCF Done:  E(RPBE-PBE) =  -284.014058801     A.U. after   12 cycles
 SCF Done:  E(RPBE-PBE) =  -284.014069941     A.U. after   12 cycles
 SCF Done:  E(RPBE-PBE) =  -284.014070840     A.U. after    9 cycles
 SCF Done:  E(RPBE-PBE) =  -284.014070907     A.U. after    8 cycles
 Optimization completed.
    -- Stationary point found.

                          Input orientation:
 ---------------------------------------------------------------------
 Center     Atomic      Atomic             Coordinates (Angstroms)
 Number     Number       Type             X           Y           Z
 ---------------------------------------------------------------------
      1          6           0       -0.547395   -0.079113    0.154111
      2          8           0       -1.377372    0.559167   -0.762674
      3          6           0        0.868182   -0.243366   -0.395722
      4          1           0        0.827038   -1.020448   -1.183254
      5          1           0        1.157691    0.690405   -0.906677
      6          7           0        1.866939   -0.613429    0.592336
      7          1           0        2.060189    0.120326    1.276850
      8          1           0        1.664477   -1.498291    1.062168
      9          8           0       -0.944127   -0.460488    1.269695
     10          1           0       -2.293596    0.621650   -0.381881
 ---------------------------------------------------------------------

 Alpha  occ. eigenvalues --      -18.82079     -18.77388     -13.98398     -10.02924      -9.93984
 Alpha  occ. eigenvalues --       -1.01874      -0.93848      -0.81388      -0.65753      -0.55021
 Alpha  occ. eigenvalues --       -0.46438      -0.44605      -0.41775      -0.39901      -0.38366
 Alpha  occ. eigenvalues --       -0.33689      -0.33030      -0.27465      -0.23388      -0.18444
 Alpha virt. eigenvalues --       -0.04481       0.03164       0.05473       0.10435       0.10868
 Alpha virt. eigenvalues --        0.15521       0.16711       0.18824       0.25105       0.31358
 Alpha virt. eigenvalues --        0.50099       0.53006       0.54467       0.58454       0.60477

 Mulliken charges:
               1
     1  C    0.408411
     2  O   -0.512301
     3  C   -0.241971
     4  H    0.206065
     5  H    0.200477
     6  N   -0.643721
     7  H    0.294073
     8  H    0.297815
     9  O   -0.385260
    10  H    0.376413
 Sum of Mulliken charges =  -0.00000

 Dipole moment (field-independent basis, Debye):
    X=             -0.6912    Y=              0.5481    Z=             -0.4165  Tot=              0.9755
 Quadrupole moment (field-independent basis, Debye-Ang):
   XX=            -29.1049   YY=            -27.8915   ZZ=            -32.0230
   XY=             -0.3920   XZ=              3.4090   YZ=              1.6511

 Normal termination of Gaussian DV at Mon Jan  1 12:04:43 2024.
