 -------------------------------------------------------------------
 #p nosymm geom=nocrowd opt=(modredundant,maxcycle=100) PBEPBE/6-31G
 -------------------------------------------------------------------

 -----
 Title
 -----
 Symbolic Z-matrix:
 Charge =  0 Multiplicity = 1

 SCF Done:  E(RPBE-PBE) =  -284.004187391     A.U. after   16 cycles
 SCF Done:  E(RPBE-PBE) =  -284.010021450     A.U. after   13 cycles
 SCF Done:  E(RPBE-PBE) =  -284.010472384     A.U. after   13 cycles
 SCF Done:  E(RPBE-PBE) =  -284.010564615     A.U. after   13 cycles
 SCF Done:  E(RPBE-PBE) =  -284.010598091     A.U. after   13 cycles
 SCF Done:  E(RPBE-PBE) =  -284.010756175     A.U. after   13 cycles
 SCF Done:  E(RPBE-PBE) =  -284.010777042     A.U. after   10 cycles
 SCF Done:  E(RPBE-PBE) =  -284.010780169     A.U. after    9 cycles
 SCF Done:  E(RPBE-PBE) =  -284.010780426     A.U. after    9 cycles
 SCF Done:  E(RPBE-PBE) =  -284.010780483     A.U. after    8 cycles
 Optimization completed.
    -- Stationary point found.
 Optimization completed.
 SCF Done:  E(RPBE-PBE) =  -284.011092824     A.U. after    9 cycles
 SCF Done:  E(RPBE-PBE) =  -284.011093603     A.U. after    9 cycles
 SCF Done:  E(RPBE-PBE) =  -284.011093629     A.U. after    8 cycles
    -- Stationary point found.
 SCF Done:  E(RPBE-PBE) =  -283.996055685     A.U. after   12 cycles
 SCF Done:  E(RPBE-PBE) =  -284.007401855     A.U. after   14 cycles
 SCF Done:  E(RPBE-PBE) =  -284.010537968     A.U. after   15 cycles
 SCF Done:  E(RPBE-PBE) =  -284.010746685     A.U. after   13 cycles
 SCF Done:  E(RPBE-PBE) =  -284.010767996     A.U. after   12 cycles
 SCF Done:  E(RPBE-PBE) =  -284.010780043     A.U. after    9 cycles
 SCF Done:  E(RPBE-PBE) =  -284.010780282     A.U. after    8 cycles
 Optimization completed.
    -- Stationary point found.

                          Input orientation:
 ---------------------------------------------------------------------
 Center     Atomic      Atomic             Coordinates (Angstroms)
 Number     Number       Type             X           Y           Z
 ---------------------------------------------------------------------
      1          6           0       -0.466944   -0.101888   -0.367985
      2          8           0       -1.616497   -0.836281   -0.109335
      3          6           0        0.651635   -0.476318    0.578254
      4          1           0        0.330011   -0.095043    1.582890
      5          1           0        0.675380   -1.577810    0.669613
      6          7           0        1.904158    0.042540    0.073525
      7          1           0        1.834423    0.936541   -0.409090
      8          1           0        2.717872   -0.067393    0.670723
      9          8           0       -0.411358    0.780370   -1.243378
     10          1           0       -2.336656   -0.528306   -0.720267
 ---------------------------------------------------------------------

 Alpha  occ. eigenvalues --      -18.82254     -18.77521     -13.97391     -10.03469      -9.93975
 Alpha  occ. eigenvalues --       -1.02190      -0.94098      -0.80662      -0.66049      -0.54757
 Alpha  occ. eigenvalues --       -0.47574      -0.43117      -0.41948      -0.39841      -0.38059
 Alpha  occ. eigenvalues --       -0.34864      -0.33159      -0.27539      -0.23534      -0.16967
 Alpha virt. eigenvalues --       -0.04409       0.03167       0.06438       0.09972       0.12686
 Alpha virt. eigenvalues --        0.14121       0.17603       0.19181       0.24706       0.30863
 Alpha virt. eigenvalues --        0.50712       0.52681       0.54739       0.57903       0.60631

 Mulliken charges:
               1
     1  C    0.434672
     2  O   -0.515201
     3  C   -0.178076
     4  H    0.168015
     5  H    0.196672
     6  N   -0.705883
     7  H    0.309866
     8  H    0.293278
     9  O   -0.383250
    10  H    0.379905
 Sum of Mulliken charges =  -0.00000

 Dipole moment (field-independent basis, Debye):
    X=             -0.3364    Y=             -0.1295    Z=              1.7306  Tot=              1.7677
 Quadrupole moment (field-independent basis, Debye-Ang):
   XX=            -23.1792   YY=            -31.0635   ZZ=            -31.1982
   XY=              1.4574   XZ=              4.8812   YZ=              1.6834

 Normal termination of Gaussian DV at Mon Jan  1 12:18:54 2024.
