 -------------------------------------------------------------------
 #p nosymm geom=nocrowd opt=(modredundant,maxcycle=100) PBEPBE/6-31G
 -------------------------------------------------------------------

 -----
 Title
 -----
 Symbolic Z-matrix:
 Charge =  0 Multiplicity = 1

 SCF Done:  E(RPBE-PBE) =  -284.004187391     A.U. after   16 cycles
 SCF Done:  E(RPBE-PBE) =  -284.010028940     A.U. after   13 cycles
 SCF Done:  E(RPBE-PBE) =  -284.010446156     A.U. after   13 cycles
 SCF Done:  E(RPBE-PBE) =  -284.010348600     A.U. after   13 cycles
 SCF Done:  E(RPBE-PBE) =  -284.010733701     A.U. after   13 cycles
 SCF Done:  E(RPBE-PBE) =  -284.010773533     A.U. after   11 cycles
 SCF Done:  E(RPBE-PBE) =  -284.010783229     A.U. after   10 cycles
 SCF Done:  E(RPBE-PBE) =  -284.010783867     A.U. after    9 cycles
 SCF Done:  E(RPBE-PBE) =  -284.010783957     A.U. after    8 cycles
 Optimization completed.
    -- Stationary point found.
 SCF Done:  E(RPBE-PBE) =  -283.998949221     A.U. after   12 cycles
 Optimization completed.
 SCF Done:  E(RPBE-PBE) =  -284.011107163     A.U. after   13 cycles
 SCF Done:  E(RPBE-PBE) =  -284.011118037     A.U. after   11 cycles
 SCF Done:  E(RPBE-PBE) =  -284.011119668     A.U. after    9 cycles
 SCF Done:  E(RPBE-PBE) =  -284.011119731     A.U. after    8 cycles
    -- Stationary point found.
 SCF Done:  E(RPBE-PBE) =  -283.998430957     A.U. after   12 cycles
 SCF Done:  E(RPBE-PBE) =  -284.008259040     A.U. after   13 cycles
 SCF Done:  E(RPBE-PBE) =  -284.010604870     A.U. after   13 cycles
 SCF Done:  E(RPBE-PBE) =  -284.010718357     A.U. after   13 cycles
 SCF Done:  E(RPBE-PBE) =  -284.010782579     A.U. after   12 cycles
 SCF Done:  E(RPBE-PBE) =  -284.010783893     A.U. after    9 cycles
 Optimization completed.
    -- Stationary point found.

                          Input orientation:
 ---------------------------------------------------------------------
 Center     Atomic      Atomic             Coordinates (Angstroms)
 Number     Number       Type             X           Y           Z
 ---------------------------------------------------------------------
      1          6           0       -0.474193   -0.098741   -0.355794
      2          8           0       -1.625436   -0.819894   -0.068522
      3          6           0        0.657013   -0.472213    0.575026
      4          1           0        0.358957   -0.087816    1.585457
      5          1           0        0.673869   -1.573806    0.670904
      6          7           0        1.905673    0.031286    0.045687
      7          1           0        1.836646    0.922305   -0.442419
      8          1           0        2.728317   -0.082379    0.629711
      9          8           0       -0.425840    0.771486   -1.243595
     10          1           0       -2.352980   -0.513816   -0.671505
 ---------------------------------------------------------------------

 Alpha  occ. eigenvalues --      -18.82249     -18.77517     -13.97391     -10.03469      -9.93970
 Alpha  occ. eigenvalues --       -1.02185      -0.94092      -0.80658      -0.66052      -0.54757
 Alpha  occ. eigenvalues --       -0.47578      -0.43099      -0.41938      -0.39859      -0.38069
 Alpha  occ. eigenvalues --       -0.34846      -0.33157      -0.27536      -0.23526      -0.16963
 Alpha virt. eigenvalues --       -0.04418       0.03171       0.06431       0.09979       0.12703
 Alpha virt. eigenvalues --        0.14120       0.17610       0.19173       0.24720       0.30872
 Alpha virt. eigenvalues --        0.50695       0.52694       0.54753       0.57911       0.60634

 Mulliken charges:
               1
     1  C    0.434739
     2  O   -0.515253
     3  C   -0.178546
     4  H    0.168171
     5  H    0.196859
     6  N   -0.705934
     7  H    0.309772
     8  H    0.293315
     9  O   -0.383073
    10  H    0.379950
 Sum of Mulliken charges =  -0.00000

 Dipole moment (field-independent basis, Debye):
    X=             -0.3047    Y=             -0.1133    Z=              1.7406  Tot=              1.7707
 Quadrupole moment (field-independent basis, Debye-Ang):
   XX=            -22.9859   YY=            -31.0336   ZZ=            -31.3949
   XY=              1.4627   XZ=              4.7510   YZ=              1.6245

 Normal termination of Gaussian DV at Mon Jan  1 12:36:01 2024.
