 Gaussian 16, Revision C.01,
 Gaussian 16:  ES64L-G16RevC.01  3-Jul-2019

 ----------------------------------------------------------------------
 #P B3LYP/def2TZVPP Geom=Connectivity opt=(calcall,tight,maxstep=7,maxc
 ycles=100) Freq
 ----------------------------------------------------------------------

 ----------------------
 Title C-CTard Required
 ----------------------
 Symbolic Z-matrix:
 Charge =  0 Multiplicity = 1

 SCF Done:  E(RB3LYP) =  -158.518878386     A.U. after   11 cycles
 SCF Done:  E(RB3LYP) =  -158.521749904     A.U. after    9 cycles
 SCF Done:  E(RB3LYP) =  -158.524184387     A.U. after    9 cycles
 SCF Done:  E(RB3LYP) =  -158.524216644     A.U. after    6 cycles
 SCF Done:  E(RB3LYP) =  -158.524216675     A.U. after    4 cycles
 Optimization completed.
    -- Stationary point found.
 Normal termination of Gaussian 16 at Fri Oct 29 10:15:31 2021.

 ---------------------------------------------------------------------
 #P Geom=AllCheck Guess=TCheck SCRF=Check GenChk RB3LYP/def2TZVPP Freq
 ---------------------------------------------------------------------

 Structure from the checkpoint file:  "but_qm.chk"
 ----------------------
 Title C-CTard Required
 ----------------------
 Charge =  0 Multiplicity = 1

                         Standard orientation:
 ---------------------------------------------------------------------
 Center     Atomic      Atomic             Coordinates (Angstroms)
 Number     Number       Type             X           Y           Z
 ---------------------------------------------------------------------
      1          6    90000001        1.956898   -0.120392    0.000000
      2          1    20001035        2.742006    0.637259   -0.000000
      3          1    20001035        2.103754   -0.749379   -0.880760
      4          1    20001035        2.103754   -0.749379    0.880760
      5          6    90000001        0.566957    0.512915   -0.000000
      6          1    20001035        0.461751    1.163404   -0.874027
      7          1    20001035        0.461751    1.163404    0.874026
      8          6    90000001       -0.566957   -0.512915   -0.000000
      9          1    20001035       -0.461751   -1.163404   -0.874027
     10          1    20001035       -0.461751   -1.163404    0.874026
     11          6    90000001       -1.956898    0.120392    0.000000
     12          1    20001035       -2.103754    0.749379   -0.880760
     13          1    20001035       -2.742006   -0.637259    0.000000
     14          1    20001035       -2.103754    0.749379    0.880760
 ---------------------------------------------------------------------

 SCF Done:  E(RB3LYP) =  -158.524216675     A.U. after    1 cycles

 The electronic state is 1-A.
 Alpha  occ. eigenvalues --  -10.16334 -10.16313 -10.15683 -10.15682  -0.79480
 Alpha  occ. eigenvalues --   -0.72485  -0.63172  -0.57733  -0.47019  -0.42814
 Alpha  occ. eigenvalues --   -0.42108  -0.41283  -0.37072  -0.35254  -0.33622
 Alpha  occ. eigenvalues --   -0.32490  -0.32444
 Alpha virt. eigenvalues --    0.03503   0.05529   0.07872   0.08010   0.10541
 Alpha virt. eigenvalues --    0.11027   0.12319   0.12905   0.14059   0.14183
 Alpha virt. eigenvalues --    0.16056   0.16880   0.19644   0.21645   0.23280

 Mulliken charges:
               1
     1  C   -0.253674
     2  H    0.081661
     3  H    0.072417
     4  H    0.072417
     5  C   -0.072371
     6  H    0.049775
     7  H    0.049775
     8  C   -0.072371
     9  H    0.049775
    10  H    0.049775
    11  C   -0.253674
    12  H    0.072417
    13  H    0.081661
    14  H    0.072417
 Sum of Mulliken charges =  -0.00000

 Dipole moment (field-independent basis, Debye):
    X=             -0.0000    Y=             -0.0000    Z=             -0.0000  Tot=              0.0000
 Quadrupole moment (field-independent basis, Debye-Ang):
   XX=            -29.5961   YY=            -28.9268   ZZ=            -28.2456
   XY=              0.3590   XZ=             -0.0000   YZ=             -0.0000

  Exact polarizability:      59.960      -0.378      49.220      -0.000       0.000      47.074
 Approx polarizability:      69.083      -0.097      68.820       0.000       0.000      68.503

                      1                      2                      3
                      A                      A                      A
 Frequencies --    119.2744               221.0690               258.2365
 Red. masses --      1.9213                 1.0583                 1.1219
 Frc consts  --      0.0161                 0.0305                 0.0441
 IR Inten    --      0.0142                 0.0000                 0.0000

                      4                      5                      6
                      A                      A                      A
 Frequencies --    258.9418               424.6347               737.9800
 Red. masses --      2.2466                 2.7328                 1.0715
 Frc consts  --      0.0888                 0.2903                 0.3438
 IR Inten    --      0.0179                 0.0000                 3.4670

                      7                      8                      9
                      A                      A                      A
 Frequencies --    813.6943               840.8709               965.0004
 Red. masses --      1.1256                 1.9839                 1.1212
 Frc consts  --      0.4391                 0.8265                 0.6151
 IR Inten    --      0.0000                 0.0000                 0.7990

                     10                     11                     12
                      A                      A                      A
 Frequencies --    981.6824              1016.3892              1063.8906
 Red. masses --      1.3818                 2.6312                 2.4639
 Frc consts  --      0.7846                 1.6015                 1.6431
 IR Inten    --      5.2595                 0.1147                 0.0000

                     13                     14                     15
                      A                      A                      A
 Frequencies --   1170.4370              1211.9185              1291.9078
 Red. masses --      2.0477                 1.7545                 1.2458
 Frc consts  --      1.6528                 1.5183                 1.2250
 IR Inten    --      0.0000                 0.0000                 0.1998

                     16                     17                     18
                      A                      A                      A
 Frequencies --   1329.0862              1333.8548              1395.3837
 Red. masses --      1.3462                 1.0696                 1.5503
 Frc consts  --      1.4011                 1.1213                 1.7785
 IR Inten    --      2.7389                 0.0000                 0.0000

                     19                     20                     21
                      A                      A                      A
 Frequencies --   1414.9633              1416.5966              1488.7213
 Red. masses --      1.2213                 1.2395                 1.0621
 Frc consts  --      1.4406                 1.4655                 1.3868
 IR Inten    --      0.0000                 4.8788                 0.0000

                     22                     23                     24
                      A                      A                      A
 Frequencies --   1492.7621              1499.9695              1501.4083
 Red. masses --      1.0477                 1.0438                 1.0362
 Frc consts  --      1.3755                 1.3836                 1.3762
 IR Inten    --      2.0971                 0.0000                13.9426

                     25                     26                     27
                      A                      A                      A
 Frequencies --   1505.8341              1514.1386              3002.3406
 Red. masses --      1.0640                 1.0891                 1.0578
 Frc consts  --      1.4214                 1.4711                 5.6180
 IR Inten    --      0.0000                 8.3041                 0.0000

                     28                     29                     30
                      A                      A                      A
 Frequencies --   3010.9589              3019.1917              3022.5349
 Red. masses --      1.0588                 1.1004                 1.0363
 Frc consts  --      5.6558                 5.9098                 5.5780
 IR Inten    --     43.8771                 0.0000                83.8750

                     31                     32                     33
                      A                      A                      A
 Frequencies --   3022.9250              3042.5188              3079.1065
 Red. masses --      1.0357                 1.1042                 1.1025
 Frc consts  --      5.5759                 6.0225                 6.1583
 IR Inten    --      0.0000                20.4509                 0.0000

                     34                     35                     36
                      A                      A                      A
 Frequencies --   3083.1513              3086.3772              3087.2310
 Red. masses --      1.1023                 1.1010                 1.1006
 Frc consts  --      6.1734                 6.1790                 6.1806
 IR Inten    --    114.8262                 0.0000                79.9192

 - Thermochemistry -
 -------------------
 Temperature   298.150 Kelvin.  Pressure   1.00000 Atm.
 Atom     1 has atomic number  6 and mass  12.00000

 Molecular mass:    58.07825 amu.
 Principal axes and moments of inertia in atomic units:
                           1         2         3
     Eigenvalues --    76.43442 498.83438 530.93879
           X            0.99998  -0.00556  -0.00000
           Y            0.00556   0.99998  -0.00000
           Z            0.00000   0.00000   1.00000
 This molecule is an asymmetric top.
 Rotational symmetry number  1.
 Rotational temperatures (Kelvin)      1.13318     0.17363     0.16313
 Rotational constants (GHZ):          23.61163     3.61792     3.39915
 Zero-point vibrational energy     345272.1 (Joules/Mol)
                                   82.52200 (Kcal/Mol)
 Warning -- explicit consideration of   5 degrees of freedom as
           vibrations may cause significant error
 Vibrational temperatures:    171.61   318.07   371.54   372.56   610.95
          (Kelvin)           1061.79  1170.72  1209.83  1388.42  1412.42
                             1462.36  1530.70  1684.00  1743.68  1858.77
                             1912.26  1919.12  2007.65  2035.82  2038.17
                             2141.94  2147.75  2158.12  2160.19  2166.56
                             2178.51  4319.70  4332.10  4343.94  4348.75
                             4349.31  4377.51  4430.15  4435.97  4440.61
                             4441.84

 Zero-point correction=                           0.131507 (Hartree/Particle)
 Thermal correction to Energy=                    0.137304
 Thermal correction to Enthalpy=                  0.138248
 Thermal correction to Gibbs Free Energy=         0.103474
 Sum of electronic and zero-point Energies=           -158.392709
 Sum of electronic and thermal Energies=              -158.386913
 Sum of electronic and thermal Enthalpies=            -158.385968
 Sum of electronic and thermal Free Energies=         -158.420742

                     E (Thermal)             CV                S
                      KCal/Mol        Cal/Mol-Kelvin    Cal/Mol-Kelvin
 Total                   86.160             19.676             73.188
 Electronic               0.000              0.000              0.000
 Translational            0.889              2.981             38.098
 Rotational               0.889              2.981             24.519
 Vibrational             84.382             13.714             10.571
 Vibration     1          0.609              1.933              3.112
 Vibration     2          0.648              1.809              1.950
 Vibration     3          0.667              1.749              1.674
 Vibration     4          0.668              1.748              1.669
 Vibration     5          0.787              1.417              0.876

 Optimization completed.
    -- Stationary point found.
 Normal termination of Gaussian 16 at Fri Oct 29 10:18:14 2021.
